# LAMMPS data file written by OVITO Basic 3.5.4
196 atoms
1 atom types
0.0 17.2165850272 xlo xhi
0.0 14.91 ylo yhi
2 7.35 zlo zhi
8.6082925136 0.0 0.0 xy xz yz

Masses

1 12.0107  # C

Atoms  # charge

1 1 0.0 0.0 0.0 3.0
2 1 0.0 1.75679439 2.23142857 3.0
3 1 0.0 2.28383271 0.91285714 3.0
4 1 0.0 3.68926822 0.71 3.0
5 1 0.0 2.63519159 3.34714286 3.0
6 1 0.0 4.0406271 3.14428571 3.0
7 1 0.0 4.56766542 1.82571429 3.0
8 1 0.0 5.97310093 1.62285714 3.0
9 1 0.0 6.50013924 0.30428571 3.0
10 1 0.0 7.90557476 0.10142857 3.0
11 1 0.0 4.39198598 5.57857143 3.0
12 1 0.0 4.91902429 4.26 3.0
13 1 0.0 6.32445981 4.05714286 3.0
14 1 0.0 6.85149812 2.73857143 3.0
15 1 0.0 8.25693364 2.53571429 3.0
16 1 0.0 8.78397195 1.21714286 3.0
17 1 0.0 10.18940747 1.01428571 3.0
18 1 0.0 4.74334485 8.01285714 3.0
19 1 0.0 5.27038317 6.69428571 3.0
20 1 0.0 6.67581868 6.49142857 3.0
21 1 0.0 7.202857 5.17285714 3.0
22 1 0.0 8.60829251 4.97 3.0
23 1 0.0 9.13533083 3.65142857 3.0
24 1 0.0 10.54076634 3.44857143 3.0
25 1 0.0 11.06780466 2.13 3.0
26 1 0.0 12.47324017 1.92714286 3.0
27 1 0.0 13.00027849 0.60857143 3.0
28 1 0.0 14.405714 0.40571429 3.0
29 1 0.0 5.62174205 9.12857143 3.0
30 1 0.0 7.02717756 8.92571429 3.0
31 1 0.0 7.55421588 7.60714286 3.0
32 1 0.0 8.95965139 7.40428571 3.0
33 1 0.0 9.48668971 6.08571429 3.0
34 1 0.0 10.89212522 5.88285714 3.0
35 1 0.0 11.41916354 4.56428571 3.0
36 1 0.0 12.82459905 4.36142857 3.0
37 1 0.0 13.35163737 3.04285714 3.0
38 1 0.0 14.75707288 2.84 3.0
39 1 0.0 15.2841112 1.52142857 3.0
40 1 0.0 16.68954671 1.31857143 3.0
41 1 0.0 7.37853644 11.36 3.0
42 1 0.0 7.90557476 10.04142857 3.0
43 1 0.0 9.31101027 9.83857143 3.0
44 1 0.0 9.83804859 8.52 3.0
45 1 0.0 11.2434841 8.31714286 3.0
46 1 0.0 11.77052242 6.99857143 3.0
47 1 0.0 13.17595793 6.79571429 3.0
48 1 0.0 13.70299625 5.47714286 3.0
49 1 0.0 15.10843176 5.27428571 3.0
50 1 0.0 15.63547008 3.95571429 3.0
51 1 0.0 17.04090559 3.75285714 3.0
52 1 0.0 17.56794391 2.43428571 3.0
53 1 0.0 8.25693364 12.47571429 3.0
54 1 0.0 9.66236915 12.27285714 3.0
55 1 0.0 10.18940747 10.95428571 3.0
56 1 0.0 11.59484298 10.75142857 3.0
57 1 0.0 12.12188129 9.43285714 3.0
58 1 0.0 13.52731681 9.23 3.0
59 1 0.0 14.05435512 7.91142857 3.0
60 1 0.0 15.45979064 7.70857143 3.0
61 1 0.0 15.98682895 6.39 3.0
62 1 0.0 17.39226447 6.18714286 3.0
63 1 0.0 17.91930278 4.86857143 3.0
64 1 0.0 19.3247383 4.66571429 3.0
65 1 0.0 10.01372803 14.70714286 3.0
66 1 0.0 10.54076634 13.38857143 3.0
67 1 0.0 11.94620186 13.18571429 3.0
68 1 0.0 12.47324017 11.86714286 3.0
69 1 0.0 13.87867569 11.66428571 3.0
70 1 0.0 14.405714 10.34571429 3.0
71 1 0.0 15.81114951 10.14285714 3.0
72 1 0.0 16.33818783 8.82428571 3.0
73 1 0.0 17.74362334 8.62142857 3.0
74 1 0.0 18.27066166 7.30285714 3.0
75 1 0.0 19.67609717 7.1 3.0
76 1 0.0 20.20313549 5.78142857 3.0
77 1 0.0 12.82459905 14.30142857 3.0
78 1 0.0 14.23003456 14.09857143 3.0
79 1 0.0 14.75707288 12.78 3.0
80 1 0.0 16.16250839 12.57714286 3.0
81 1 0.0 16.68954671 11.25857143 3.0
82 1 0.0 18.09498222 11.05571429 3.0
83 1 0.0 18.62202054 9.73714286 3.0
84 1 0.0 20.02745605 9.53428571 3.0
85 1 0.0 20.55449437 8.21571429 3.0
86 1 0.0 17.04090559 13.69285714 3.0
87 1 0.0 18.4463411 13.49 3.0
88 1 0.0 18.97337942 12.17142857 3.0
89 1 0.0 20.37881493 11.96857143 3.0
90 1 0.0 20.90585325 10.65 3.0
91 1 0.0 22.31128876 10.44714286 3.0
92 1 0.0 19.3247383 14.60571429 3.0
93 1 0.0 20.73017381 14.40285714 3.0
94 1 0.0 21.25721213 13.08428571 3.0
95 1 0.0 22.66264764 12.88142857 3.0
96 1 0.0 23.18968596 11.56285714 3.0
97 1 0.0 23.54104483 13.99714286 3.0
98 1 0.0 24.94648035 13.79428571 3.0
99 1 0.0 0.0 0.0 6.35
100 1 0.0 1.40543551 0.20285714 6.35
101 1 0.0 1.93247383 1.52142857 6.35
102 1 0.0 3.33790934 1.72428571 6.35
103 1 0.0 4.21630654 0.60857143 6.35
104 1 0.0 5.62174205 0.81142857 6.35
105 1 0.0 2.98655046 4.15857143 6.35
106 1 0.0 3.86494766 3.04285714 6.35
107 1 0.0 5.27038317 3.24571429 6.35
108 1 0.0 6.14878037 2.13 6.35
109 1 0.0 7.55421588 2.33285714 6.35
110 1 0.0 8.43261307 1.21714286 6.35
111 1 0.0 9.83804859 1.42 6.35
112 1 0.0 10.71644578 0.30428571 6.35
113 1 0.0 12.12188129 0.50714286 6.35
114 1 0.0 3.51358878 5.47714286 6.35
115 1 0.0 4.91902429 5.68 6.35
116 1 0.0 5.79742149 4.56428571 6.35
117 1 0.0 7.202857 4.76714286 6.35
118 1 0.0 8.0812542 3.65142857 6.35
119 1 0.0 9.48668971 3.85428571 6.35
120 1 0.0 10.3650869 2.73857143 6.35
121 1 0.0 11.77052242 2.94142857 6.35
122 1 0.0 12.64891961 1.82571429 6.35
123 1 0.0 14.05435512 2.02857143 6.35
124 1 0.0 14.93275232 0.91285714 6.35
125 1 0.0 16.33818783 1.11571429 6.35
126 1 0.0 5.44606261 6.99857143 6.35
127 1 0.0 6.85149812 7.20142857 6.35
128 1 0.0 7.72989532 6.08571429 6.35
129 1 0.0 9.13533083 6.28857143 6.35
130 1 0.0 10.01372803 5.17285714 6.35
131 1 0.0 11.41916354 5.37571429 6.35
132 1 0.0 12.29756073 4.26 6.35
133 1 0.0 13.70299625 4.46285714 6.35
134 1 0.0 14.58139344 3.34714286 6.35
135 1 0.0 15.98682895 3.55 6.35
136 1 0.0 16.86522615 2.43428571 6.35
137 1 0.0 18.27066166 2.63714286 6.35
138 1 0.0 6.50013924 9.63571429 6.35
139 1 0.0 7.37853644 8.52 6.35
140 1 0.0 8.78397195 8.72285714 6.35
141 1 0.0 9.66236915 7.60714286 6.35
142 1 0.0 11.06780466 7.81 6.35
143 1 0.0 11.94620186 6.69428571 6.35
144 1 0.0 13.35163737 6.89714286 6.35
145 1 0.0 14.23003456 5.78142857 6.35
146 1 0.0 15.63547008 5.98428571 6.35
147 1 0.0 16.51386727 4.86857143 6.35
148 1 0.0 17.91930278 5.07142857 6.35
149 1 0.0 18.79769998 3.95571429 6.35
150 1 0.0 7.02717756 10.95428571 6.35
151 1 0.0 8.43261307 11.15714286 6.35
152 1 0.0 9.31101027 10.04142857 6.35
153 1 0.0 10.71644578 10.24428571 6.35
154 1 0.0 11.59484298 9.12857143 6.35
155 1 0.0 13.00027849 9.33142857 6.35
156 1 0.0 13.87867569 8.21571429 6.35
157 1 0.0 15.2841112 8.41857143 6.35
158 1 0.0 16.16250839 7.30285714 6.35
159 1 0.0 17.56794391 7.50571429 6.35
160 1 0.0 18.4463411 6.39 6.35
161 1 0.0 19.85177661 6.59285714 6.35
162 1 0.0 8.0812542 13.59142857 6.35
163 1 0.0 8.95965139 12.47571429 6.35
164 1 0.0 10.3650869 12.67857143 6.35
165 1 0.0 11.2434841 11.56285714 6.35
166 1 0.0 12.64891961 11.76571429 6.35
167 1 0.0 13.52731681 10.65 6.35
168 1 0.0 14.93275232 10.85285714 6.35
169 1 0.0 15.81114951 9.73714286 6.35
170 1 0.0 17.21658503 9.94 6.35
171 1 0.0 18.09498222 8.82428571 6.35
172 1 0.0 19.50041773 9.02714286 6.35
173 1 0.0 20.37881493 7.91142857 6.35
174 1 0.0 21.78425044 8.11428571 6.35
175 1 0.0 10.89212522 13.99714286 6.35
176 1 0.0 12.29756073 14.2 6.35
177 1 0.0 13.17595793 13.08428571 6.35
178 1 0.0 14.58139344 13.28714286 6.35
179 1 0.0 15.45979064 12.17142857 6.35
180 1 0.0 16.86522615 12.37428571 6.35
181 1 0.0 17.74362334 11.25857143 6.35
182 1 0.0 19.14905886 11.46142857 6.35
183 1 0.0 20.02745605 10.34571429 6.35
184 1 0.0 21.43289156 10.54857143 6.35
185 1 0.0 22.31128876 9.43285714 6.35
186 1 0.0 15.10843176 14.60571429 6.35
187 1 0.0 16.51386727 14.80857143 6.35
188 1 0.0 17.39226447 13.69285714 6.35
189 1 0.0 18.79769998 13.89571429 6.35
190 1 0.0 19.67609717 12.78 6.35
191 1 0.0 21.08153269 12.98285714 6.35
192 1 0.0 21.95992988 11.86714286 6.35
193 1 0.0 23.36536539 12.07 6.35
194 1 0.0 21.608571 14.30142857 6.35
195 1 0.0 23.01400652 14.50428571 6.35
196 1 0.0 23.89240371 13.38857143 6.35
