# LAMMPS data file written by OVITO Basic 3.5.4
868 atoms
1 atom types
0.0 36.230876335 xlo xhi
0.0 31.3768593075 ylo yhi
2 7.35 zlo zhi
18.1154381675 0.0 0.0 xy xz yz

Masses

1 12.0107  # C

Atoms  # charge

1 1 0.0 0.0 0.0 3.0
2 1 0.0 1.50266307 2.40989703 3.0
3 1 0.0 2.17051333 1.15675057 3.0
4 1 0.0 3.58969512 1.10855263 3.0
5 1 0.0 2.25399461 3.61484554 3.0
6 1 0.0 3.6731764 3.5666476 3.0
7 1 0.0 4.34102666 2.31350115 3.0
8 1 0.0 5.76020845 2.26530321 3.0
9 1 0.0 6.4280587 1.01215675 3.0
10 1 0.0 7.8472405 0.96395881 3.0
11 1 0.0 3.75665768 6.02474257 3.0
12 1 0.0 4.42450794 4.77159612 3.0
13 1 0.0 5.84368973 4.72339818 3.0
14 1 0.0 6.51153999 3.47025172 3.0
15 1 0.0 7.93072178 3.42205378 3.0
16 1 0.0 8.59857203 2.16890733 3.0
17 1 0.0 10.01775383 2.12070938 3.0
18 1 0.0 10.68560408 0.86756293 3.0
19 1 0.0 12.10478587 0.81936499 3.0
20 1 0.0 4.50798922 7.22969108 3.0
21 1 0.0 5.92717101 7.18149314 3.0
22 1 0.0 6.59502127 5.92834669 3.0
23 1 0.0 8.01420306 5.88014875 3.0
24 1 0.0 8.68205332 4.62700229 3.0
25 1 0.0 10.10123511 4.57880435 3.0
26 1 0.0 10.76908536 3.3256579 3.0
27 1 0.0 12.18826715 3.27745996 3.0
28 1 0.0 12.85611741 2.0243135 3.0
29 1 0.0 14.2752992 1.97611556 3.0
30 1 0.0 14.94314946 0.72296911 3.0
31 1 0.0 16.36233125 0.67477117 3.0
32 1 0.0 6.0106523 9.63958811 3.0
33 1 0.0 6.67850255 8.38644166 3.0
34 1 0.0 8.09768434 8.33824372 3.0
35 1 0.0 8.7655346 7.08509726 3.0
36 1 0.0 10.18471639 7.03689932 3.0
37 1 0.0 10.85256664 5.78375287 3.0
38 1 0.0 12.27174844 5.73555493 3.0
39 1 0.0 12.93959869 4.48240847 3.0
40 1 0.0 14.35878048 4.43421053 3.0
41 1 0.0 15.02663074 3.18106408 3.0
42 1 0.0 16.44581253 3.13286614 3.0
43 1 0.0 17.11366278 1.87971968 3.0
44 1 0.0 18.53284458 1.83152174 3.0
45 1 0.0 19.20069483 0.57837529 3.0
46 1 0.0 20.61987662 0.53017735 3.0
47 1 0.0 6.76198383 10.84453663 3.0
48 1 0.0 8.18116562 10.79633869 3.0
49 1 0.0 8.84901588 9.54319223 3.0
50 1 0.0 10.26819767 9.49499429 3.0
51 1 0.0 10.93604793 8.24184784 3.0
52 1 0.0 12.35522972 8.1936499 3.0
53 1 0.0 13.02307997 6.94050344 3.0
54 1 0.0 14.44226176 6.8923055 3.0
55 1 0.0 15.11011202 5.63915905 3.0
56 1 0.0 16.52929381 5.59096111 3.0
57 1 0.0 17.19714407 4.33781465 3.0
58 1 0.0 18.61632586 4.28961671 3.0
59 1 0.0 19.28417611 3.03647026 3.0
60 1 0.0 20.70335791 2.98827231 3.0
61 1 0.0 21.37120816 1.73512586 3.0
62 1 0.0 22.79038995 1.68692792 3.0
63 1 0.0 23.45824021 0.43378147 3.0
64 1 0.0 24.877422 0.38558352 3.0
65 1 0.0 8.26464691 13.25443366 3.0
66 1 0.0 8.93249716 12.0012872 3.0
67 1 0.0 10.35167895 11.95308926 3.0
68 1 0.0 11.01952921 10.69994281 3.0
69 1 0.0 12.438711 10.65174486 3.0
70 1 0.0 13.10656125 9.39859841 3.0
71 1 0.0 14.52574305 9.35040047 3.0
72 1 0.0 15.1935933 8.09725401 3.0
73 1 0.0 16.61277509 8.04905607 3.0
74 1 0.0 17.28062535 6.79590962 3.0
75 1 0.0 18.69980714 6.74771168 3.0
76 1 0.0 19.3676574 5.49456522 3.0
77 1 0.0 20.78683919 5.44636728 3.0
78 1 0.0 21.45468944 4.19322083 3.0
79 1 0.0 22.87387123 4.14502289 3.0
80 1 0.0 23.54172149 2.89187643 3.0
81 1 0.0 24.96090328 2.84367849 3.0
82 1 0.0 25.62875354 1.59053204 3.0
83 1 0.0 27.04793533 1.5423341 3.0
84 1 0.0 27.71578558 0.28918764 3.0
85 1 0.0 29.13496738 0.2409897 3.0
86 1 0.0 9.01597844 14.45938217 3.0
87 1 0.0 10.43516023 14.41118423 3.0
88 1 0.0 11.10301049 13.15803777 3.0
89 1 0.0 12.52219228 13.10983983 3.0
90 1 0.0 13.19004254 11.85669338 3.0
91 1 0.0 14.60922433 11.80849544 3.0
92 1 0.0 15.27707458 10.55534898 3.0
93 1 0.0 16.69625638 10.50715104 3.0
94 1 0.0 17.36410663 9.25400459 3.0
95 1 0.0 18.78328842 9.20580665 3.0
96 1 0.0 19.45113868 7.95266019 3.0
97 1 0.0 20.87032047 7.90446225 3.0
98 1 0.0 21.53817072 6.6513158 3.0
99 1 0.0 22.95735252 6.60311786 3.0
100 1 0.0 23.62520277 5.3499714 3.0
101 1 0.0 25.04438456 5.30177346 3.0
102 1 0.0 25.71223482 4.04862701 3.0
103 1 0.0 27.13141661 4.00042907 3.0
104 1 0.0 27.79926687 2.74728261 3.0
105 1 0.0 29.21844866 2.69908467 3.0
106 1 0.0 29.88629891 1.44593822 3.0
107 1 0.0 31.3054807 1.39774028 3.0
108 1 0.0 31.97333096 0.14459382 3.0
109 1 0.0 33.39251275 0.09639588 3.0
110 1 0.0 10.51864152 16.8692792 3.0
111 1 0.0 11.18649177 15.61613274 3.0
112 1 0.0 12.60567356 15.5679348 3.0
113 1 0.0 13.27352382 14.31478835 3.0
114 1 0.0 14.69270561 14.26659041 3.0
115 1 0.0 15.36055587 13.01344395 3.0
116 1 0.0 16.77973766 12.96524601 3.0
117 1 0.0 17.44758791 11.71209956 3.0
118 1 0.0 18.8667697 11.66390162 3.0
119 1 0.0 19.53461996 10.41075516 3.0
120 1 0.0 20.95380175 10.36255722 3.0
121 1 0.0 21.62165201 9.10941077 3.0
122 1 0.0 23.0408338 9.06121283 3.0
123 1 0.0 23.70868405 7.80806637 3.0
124 1 0.0 25.12786585 7.75986843 3.0
125 1 0.0 25.7957161 6.50672198 3.0
126 1 0.0 27.21489789 6.45852404 3.0
127 1 0.0 27.88274815 5.20537758 3.0
128 1 0.0 29.30192994 5.15717964 3.0
129 1 0.0 29.96978019 3.90403319 3.0
130 1 0.0 31.38896199 3.85583525 3.0
131 1 0.0 32.05681224 2.60268879 3.0
132 1 0.0 33.47599403 2.55449085 3.0
133 1 0.0 34.14384429 1.3013444 3.0
134 1 0.0 35.56302608 1.25314645 3.0
135 1 0.0 11.26997305 18.07422771 3.0
136 1 0.0 12.68915485 18.02602977 3.0
137 1 0.0 13.3570051 16.77288332 3.0
138 1 0.0 14.77618689 16.72468538 3.0
139 1 0.0 15.44403715 15.47153892 3.0
140 1 0.0 16.86321894 15.42334098 3.0
141 1 0.0 17.53106919 14.17019453 3.0
142 1 0.0 18.95025099 14.12199659 3.0
143 1 0.0 19.61810124 12.86885013 3.0
144 1 0.0 21.03728303 12.82065219 3.0
145 1 0.0 21.70513329 11.56750574 3.0
146 1 0.0 23.12431508 11.51930779 3.0
147 1 0.0 23.79216534 10.26616134 3.0
148 1 0.0 25.21134713 10.2179634 3.0
149 1 0.0 25.87919738 8.96481694 3.0
150 1 0.0 27.29837917 8.916619 3.0
151 1 0.0 27.96622943 7.66347255 3.0
152 1 0.0 29.38541122 7.61527461 3.0
153 1 0.0 30.05326148 6.36212815 3.0
154 1 0.0 31.47244327 6.31393021 3.0
155 1 0.0 32.14029352 5.06078376 3.0
156 1 0.0 33.55947531 5.01258582 3.0
157 1 0.0 34.22732557 3.75943936 3.0
158 1 0.0 35.64650736 3.71124142 3.0
159 1 0.0 36.31435762 2.45809497 3.0
160 1 0.0 12.77263613 20.48412474 3.0
161 1 0.0 13.44048638 19.23097829 3.0
162 1 0.0 14.85966817 19.18278034 3.0
163 1 0.0 15.52751843 17.92963389 3.0
164 1 0.0 16.94670022 17.88143595 3.0
165 1 0.0 17.61455048 16.62828949 3.0
166 1 0.0 19.03373227 16.58009155 3.0
167 1 0.0 19.70158252 15.3269451 3.0
168 1 0.0 21.12076432 15.27874716 3.0
169 1 0.0 21.78861457 14.0256007 3.0
170 1 0.0 23.20779636 13.97740276 3.0
171 1 0.0 23.87564662 12.72425631 3.0
172 1 0.0 25.29482841 12.67605837 3.0
173 1 0.0 25.96267866 11.42291191 3.0
174 1 0.0 27.38186046 11.37471397 3.0
175 1 0.0 28.04971071 10.12156752 3.0
176 1 0.0 29.4688925 10.07336958 3.0
177 1 0.0 30.13674276 8.82022312 3.0
178 1 0.0 31.55592455 8.77202518 3.0
179 1 0.0 32.2237748 7.51887873 3.0
180 1 0.0 33.6429566 7.47068079 3.0
181 1 0.0 34.31080685 6.21753433 3.0
182 1 0.0 35.72998864 6.16933639 3.0
183 1 0.0 36.3978389 4.91618994 3.0
184 1 0.0 37.81702069 4.867992 3.0
185 1 0.0 13.52396766 21.68907325 3.0
186 1 0.0 14.94314946 21.64087531 3.0
187 1 0.0 15.61099971 20.38772886 3.0
188 1 0.0 17.0301815 20.33953092 3.0
189 1 0.0 17.69803176 19.08638446 3.0
190 1 0.0 19.11721355 19.03818652 3.0
191 1 0.0 19.78506381 17.78504007 3.0
192 1 0.0 21.2042456 17.73684213 3.0
193 1 0.0 21.87209585 16.48369567 3.0
194 1 0.0 23.29127764 16.43549773 3.0
195 1 0.0 23.9591279 15.18235128 3.0
196 1 0.0 25.37830969 15.13415334 3.0
197 1 0.0 26.04615995 13.88100688 3.0
198 1 0.0 27.46534174 13.83280894 3.0
199 1 0.0 28.13319199 12.57966249 3.0
200 1 0.0 29.55237378 12.53146455 3.0
201 1 0.0 30.22022404 11.27831809 3.0
202 1 0.0 31.63940583 11.23012015 3.0
203 1 0.0 32.30725609 9.9769737 3.0
204 1 0.0 33.72643788 9.92877576 3.0
205 1 0.0 34.39428813 8.6756293 3.0
206 1 0.0 35.81346993 8.62743136 3.0
207 1 0.0 36.48132018 7.37428491 3.0
208 1 0.0 37.90050197 7.32608697 3.0
209 1 0.0 38.56835223 6.07294051 3.0
210 1 0.0 15.02663074 24.09897028 3.0
211 1 0.0 15.69448099 22.84582383 3.0
212 1 0.0 17.11366278 22.79762589 3.0
213 1 0.0 17.78151304 21.54447943 3.0
214 1 0.0 19.20069483 21.49628149 3.0
215 1 0.0 19.86854509 20.24313504 3.0
216 1 0.0 21.28772688 20.1949371 3.0
217 1 0.0 21.95557713 18.94179064 3.0
218 1 0.0 23.37475893 18.8935927 3.0
219 1 0.0 24.04260918 17.64044625 3.0
220 1 0.0 25.46179097 17.59224831 3.0
221 1 0.0 26.12964123 16.33910185 3.0
222 1 0.0 27.54882302 16.29090391 3.0
223 1 0.0 28.21667327 15.03775746 3.0
224 1 0.0 29.63585507 14.98955952 3.0
225 1 0.0 30.30370532 13.73641306 3.0
226 1 0.0 31.72288711 13.68821512 3.0
227 1 0.0 32.39073737 12.43506867 3.0
228 1 0.0 33.80991916 12.38687073 3.0
229 1 0.0 34.47776942 11.13372427 3.0
230 1 0.0 35.89695121 11.08552633 3.0
231 1 0.0 36.56480146 9.83237988 3.0
232 1 0.0 37.98398325 9.78418193 3.0
233 1 0.0 38.65183351 8.53103548 3.0
234 1 0.0 40.0710153 8.48283754 3.0
235 1 0.0 15.77796227 25.3039188 3.0
236 1 0.0 17.19714407 25.25572086 3.0
237 1 0.0 17.86499432 24.0025744 3.0
238 1 0.0 19.28417611 23.95437646 3.0
239 1 0.0 19.95202637 22.70123001 3.0
240 1 0.0 21.37120816 22.65303207 3.0
241 1 0.0 22.03905842 21.39988561 3.0
242 1 0.0 23.45824021 21.35168767 3.0
243 1 0.0 24.12609046 20.09854122 3.0
244 1 0.0 25.54527225 20.05034327 3.0
245 1 0.0 26.21312251 18.79719682 3.0
246 1 0.0 27.6323043 18.74899888 3.0
247 1 0.0 28.30015456 17.49585242 3.0
248 1 0.0 29.71933635 17.44765448 3.0
249 1 0.0 30.3871866 16.19450803 3.0
250 1 0.0 31.8063684 16.14631009 3.0
251 1 0.0 32.47421865 14.89316363 3.0
252 1 0.0 33.89340044 14.84496569 3.0
253 1 0.0 34.5612507 13.59181924 3.0
254 1 0.0 35.98043249 13.5436213 3.0
255 1 0.0 36.64828274 12.29047484 3.0
256 1 0.0 38.06746454 12.2422769 3.0
257 1 0.0 38.73531479 10.98913045 3.0
258 1 0.0 40.15449658 10.94093251 3.0
259 1 0.0 40.82234684 9.68778605 3.0
260 1 0.0 17.28062535 27.71381582 3.0
261 1 0.0 17.9484756 26.46066937 3.0
262 1 0.0 19.3676574 26.41247143 3.0
263 1 0.0 20.03550765 25.15932497 3.0
264 1 0.0 21.45468944 25.11112703 3.0
265 1 0.0 22.1225397 23.85798058 3.0
266 1 0.0 23.54172149 23.80978264 3.0
267 1 0.0 24.20957174 22.55663618 3.0
268 1 0.0 25.62875354 22.50843824 3.0
269 1 0.0 26.29660379 21.25529179 3.0
270 1 0.0 27.71578558 21.20709385 3.0
271 1 0.0 28.38363584 19.95394739 3.0
272 1 0.0 29.80281763 19.90574945 3.0
273 1 0.0 30.47066789 18.652603 3.0
274 1 0.0 31.88984968 18.60440506 3.0
275 1 0.0 32.55769993 17.3512586 3.0
276 1 0.0 33.97688172 17.30306066 3.0
277 1 0.0 34.64473198 16.04991421 3.0
278 1 0.0 36.06391377 16.00171627 3.0
279 1 0.0 36.73176403 14.74856981 3.0
280 1 0.0 38.15094582 14.70037187 3.0
281 1 0.0 38.81879607 13.44722542 3.0
282 1 0.0 40.23797787 13.39902748 3.0
283 1 0.0 40.90582812 12.14588102 3.0
284 1 0.0 42.32500991 12.09768308 3.0
285 1 0.0 18.03195689 28.91876434 3.0
286 1 0.0 19.45113868 28.8705664 3.0
287 1 0.0 20.11898893 27.61741994 3.0
288 1 0.0 21.53817072 27.569222 3.0
289 1 0.0 22.20602098 26.31607555 3.0
290 1 0.0 23.62520277 26.26787761 3.0
291 1 0.0 24.29305303 25.01473115 3.0
292 1 0.0 25.71223482 24.96653321 3.0
293 1 0.0 26.38008507 23.71338676 3.0
294 1 0.0 27.79926687 23.66518882 3.0
295 1 0.0 28.46711712 22.41204236 3.0
296 1 0.0 29.88629891 22.36384442 3.0
297 1 0.0 30.55414917 21.11069797 3.0
298 1 0.0 31.97333096 21.06250003 3.0
299 1 0.0 32.64118121 19.80935357 3.0
300 1 0.0 34.06036301 19.76115563 3.0
301 1 0.0 34.72821326 18.50800918 3.0
302 1 0.0 36.14739505 18.45981124 3.0
303 1 0.0 36.81524531 17.20666478 3.0
304 1 0.0 38.2344271 17.15846684 3.0
305 1 0.0 38.90227736 15.90532039 3.0
306 1 0.0 40.32145915 15.85712245 3.0
307 1 0.0 40.9893094 14.60397599 3.0
308 1 0.0 42.40849119 14.55577805 3.0
309 1 0.0 43.07634145 13.3026316 3.0
310 1 0.0 19.53461996 31.32866137 3.0
311 1 0.0 20.20247021 30.07551491 3.0
312 1 0.0 21.62165201 30.02731697 3.0
313 1 0.0 22.28950226 28.77417052 3.0
314 1 0.0 23.70868405 28.72597258 3.0
315 1 0.0 24.37653431 27.47282612 3.0
316 1 0.0 25.7957161 27.42462818 3.0
317 1 0.0 26.46356636 26.17148173 3.0
318 1 0.0 27.88274815 26.12328379 3.0
319 1 0.0 28.5505984 24.87013733 3.0
320 1 0.0 29.96978019 24.82193939 3.0
321 1 0.0 30.63763045 23.56879294 3.0
322 1 0.0 32.05681224 23.520595 3.0
323 1 0.0 32.7246625 22.26744854 3.0
324 1 0.0 34.14384429 22.2192506 3.0
325 1 0.0 34.81169454 20.96610415 3.0
326 1 0.0 36.23087633 20.9179062 3.0
327 1 0.0 36.89872659 19.66475975 3.0
328 1 0.0 38.31790838 19.61656181 3.0
329 1 0.0 38.98575864 18.36341536 3.0
330 1 0.0 40.40494043 18.31521741 3.0
331 1 0.0 41.07279068 17.06207096 3.0
332 1 0.0 42.49197248 17.01387302 3.0
333 1 0.0 43.15982273 15.76072656 3.0
334 1 0.0 44.57900452 15.71252862 3.0
335 1 0.0 22.37298354 31.23226549 3.0
336 1 0.0 23.79216534 31.18406755 3.0
337 1 0.0 24.46001559 29.93092109 3.0
338 1 0.0 25.87919738 29.88272315 3.0
339 1 0.0 26.54704764 28.6295767 3.0
340 1 0.0 27.96622943 28.58137875 3.0
341 1 0.0 28.63407968 27.3282323 3.0
342 1 0.0 30.05326148 27.28003436 3.0
343 1 0.0 30.72111173 26.0268879 3.0
344 1 0.0 32.14029352 25.97868996 3.0
345 1 0.0 32.80814378 24.72554351 3.0
346 1 0.0 34.22732557 24.67734557 3.0
347 1 0.0 34.89517582 23.42419911 3.0
348 1 0.0 36.31435762 23.37600117 3.0
349 1 0.0 36.98220787 22.12285472 3.0
350 1 0.0 38.40138966 22.07465678 3.0
351 1 0.0 39.06923992 20.82151032 3.0
352 1 0.0 40.48842171 20.77331238 3.0
353 1 0.0 41.15627197 19.52016593 3.0
354 1 0.0 42.57545376 19.47196799 3.0
355 1 0.0 43.24330401 18.21882153 3.0
356 1 0.0 44.6624858 18.17062359 3.0
357 1 0.0 45.33033606 16.91747714 3.0
358 1 0.0 26.63052892 31.08767166 3.0
359 1 0.0 28.04971071 31.03947372 3.0
360 1 0.0 28.71756097 29.78632727 3.0
361 1 0.0 30.13674276 29.73812933 3.0
362 1 0.0 30.80459301 28.48498287 3.0
363 1 0.0 32.2237748 28.43678493 3.0
364 1 0.0 32.89162506 27.18363848 3.0
365 1 0.0 34.31080685 27.13544054 3.0
366 1 0.0 34.97865711 25.88229408 3.0
367 1 0.0 36.3978389 25.83409614 3.0
368 1 0.0 37.06568915 24.58094969 3.0
369 1 0.0 38.48487095 24.53275175 3.0
370 1 0.0 39.1527212 23.27960529 3.0
371 1 0.0 40.57190299 23.23140735 3.0
372 1 0.0 41.23975325 21.9782609 3.0
373 1 0.0 42.65893504 21.93006296 3.0
374 1 0.0 43.32678529 20.6769165 3.0
375 1 0.0 44.74596709 20.62871856 3.0
376 1 0.0 45.41381734 19.37557211 3.0
377 1 0.0 46.83299913 19.32737417 3.0
378 1 0.0 30.88807429 30.94307784 3.0
379 1 0.0 32.30725609 30.8948799 3.0
380 1 0.0 32.97510634 29.64173345 3.0
381 1 0.0 34.39428813 29.59353551 3.0
382 1 0.0 35.06213839 28.34038905 3.0
383 1 0.0 36.48132018 28.29219111 3.0
384 1 0.0 37.14917044 27.03904466 3.0
385 1 0.0 38.56835223 26.99084672 3.0
386 1 0.0 39.23620248 25.73770026 3.0
387 1 0.0 40.65538427 25.68950232 3.0
388 1 0.0 41.32323453 24.43635587 3.0
389 1 0.0 42.74241632 24.38815793 3.0
390 1 0.0 43.41026658 23.13501147 3.0
391 1 0.0 44.82944837 23.08681353 3.0
392 1 0.0 45.49729862 21.83366708 3.0
393 1 0.0 46.91648042 21.78546914 3.0
394 1 0.0 47.58433067 20.53232268 3.0
395 1 0.0 35.14561967 30.79848402 3.0
396 1 0.0 36.56480146 30.75028608 3.0
397 1 0.0 37.23265172 29.49713963 3.0
398 1 0.0 38.65183351 29.44894168 3.0
399 1 0.0 39.31968376 28.19579523 3.0
400 1 0.0 40.73886556 28.14759729 3.0
401 1 0.0 41.40671581 26.89445083 3.0
402 1 0.0 42.8258976 26.84625289 3.0
403 1 0.0 43.49374786 25.59310644 3.0
404 1 0.0 44.91292965 25.5449085 3.0
405 1 0.0 45.58077991 24.29176204 3.0
406 1 0.0 46.9999617 24.2435641 3.0
407 1 0.0 47.66781195 22.99041765 3.0
408 1 0.0 49.08699374 22.94221971 3.0
409 1 0.0 39.40316505 30.6538902 3.0
410 1 0.0 40.82234684 30.60569226 3.0
411 1 0.0 41.49019709 29.3525458 3.0
412 1 0.0 42.90937889 29.30434786 3.0
413 1 0.0 43.57722914 28.05120141 3.0
414 1 0.0 44.99641093 28.00300347 3.0
415 1 0.0 45.66426119 26.74985701 3.0
416 1 0.0 47.08344298 26.70165907 3.0
417 1 0.0 47.75129323 25.44851262 3.0
418 1 0.0 49.17047503 25.40031468 3.0
419 1 0.0 49.83832528 24.14716822 3.0
420 1 0.0 43.66071042 30.50929638 3.0
421 1 0.0 45.07989221 30.46109844 3.0
422 1 0.0 45.74774247 29.20795198 3.0
423 1 0.0 47.16692426 29.15975404 3.0
424 1 0.0 47.83477452 27.90660759 3.0
425 1 0.0 49.25395631 27.85840965 3.0
426 1 0.0 49.92180656 26.60526319 3.0
427 1 0.0 51.34098835 26.55706525 3.0
428 1 0.0 47.9182558 30.36470256 3.0
429 1 0.0 49.33743759 30.31650462 3.0
430 1 0.0 50.00528784 29.06335816 3.0
431 1 0.0 51.42446964 29.01516022 3.0
432 1 0.0 52.09231989 27.76201377 3.0
433 1 0.0 52.17580117 30.22010873 3.0
434 1 0.0 53.59498297 30.17191079 3.0
435 1 0.0 0.0 0.0 6.35
436 1 0.0 1.41918179 0.04819794 6.35
437 1 0.0 2.08703205 1.3013444 6.35
438 1 0.0 3.50621384 1.34954234 6.35
439 1 0.0 4.25754538 0.14459382 6.35
440 1 0.0 5.67672717 0.19279176 6.35
441 1 0.0 3.42273256 3.8076373 6.35
442 1 0.0 4.17406409 2.60268879 6.35
443 1 0.0 5.59324589 2.65088673 6.35
444 1 0.0 6.34457742 1.44593822 6.35
445 1 0.0 7.76375921 1.49413616 6.35
446 1 0.0 8.51509075 0.28918764 6.35
447 1 0.0 9.93427254 0.33738558 6.35
448 1 0.0 4.09058281 5.06078376 6.35
449 1 0.0 5.5097646 5.1089817 6.35
450 1 0.0 6.26109614 3.90403319 6.35
451 1 0.0 7.68027793 3.95223113 6.35
452 1 0.0 8.43160947 2.74728261 6.35
453 1 0.0 9.85079126 2.79548055 6.35
454 1 0.0 10.6021228 1.59053204 6.35
455 1 0.0 12.02130459 1.63872998 6.35
456 1 0.0 12.77263613 0.43378147 6.35
457 1 0.0 14.19181792 0.48197941 6.35
458 1 0.0 5.42628332 7.56707667 6.35
459 1 0.0 6.17761486 6.36212815 6.35
460 1 0.0 7.59679665 6.4103261 6.35
461 1 0.0 8.34812819 5.20537758 6.35
462 1 0.0 9.76730998 5.25357552 6.35
463 1 0.0 10.51864152 4.04862701 6.35
464 1 0.0 11.93782331 4.09682495 6.35
465 1 0.0 12.68915485 2.89187643 6.35
466 1 0.0 14.10833664 2.94007437 6.35
467 1 0.0 14.85966817 1.73512586 6.35
468 1 0.0 16.27884997 1.7833238 6.35
469 1 0.0 17.0301815 0.57837529 6.35
470 1 0.0 18.44936329 0.62657323 6.35
471 1 0.0 6.09413358 8.82022312 6.35
472 1 0.0 7.51331537 8.86842106 6.35
473 1 0.0 8.26464691 7.66347255 6.35
474 1 0.0 9.6838287 7.71167049 6.35
475 1 0.0 10.43516023 6.50672198 6.35
476 1 0.0 11.85434203 6.55491992 6.35
477 1 0.0 12.60567356 5.3499714 6.35
478 1 0.0 14.02485536 5.39816934 6.35
479 1 0.0 14.77618689 4.19322083 6.35
480 1 0.0 16.19536868 4.24141877 6.35
481 1 0.0 16.94670022 3.03647026 6.35
482 1 0.0 18.36588201 3.0846682 6.35
483 1 0.0 19.11721355 1.87971968 6.35
484 1 0.0 20.53639534 1.92791762 6.35
485 1 0.0 21.28772688 0.72296911 6.35
486 1 0.0 22.70690867 0.77116705 6.35
487 1 0.0 7.42983409 11.32651603 6.35
488 1 0.0 8.18116562 10.12156752 6.35
489 1 0.0 9.60034742 10.16976546 6.35
490 1 0.0 10.35167895 8.96481694 6.35
491 1 0.0 11.77086074 9.01301489 6.35
492 1 0.0 12.52219228 7.80806637 6.35
493 1 0.0 13.94137407 7.85626431 6.35
494 1 0.0 14.69270561 6.6513158 6.35
495 1 0.0 16.1118874 6.69951374 6.35
496 1 0.0 16.86321894 5.49456522 6.35
497 1 0.0 18.28240073 5.54276316 6.35
498 1 0.0 19.03373227 4.33781465 6.35
499 1 0.0 20.45291406 4.38601259 6.35
500 1 0.0 21.2042456 3.18106408 6.35
501 1 0.0 22.62342739 3.22926202 6.35
502 1 0.0 23.37475893 2.0243135 6.35
503 1 0.0 24.79394072 2.07251144 6.35
504 1 0.0 25.54527225 0.86756293 6.35
505 1 0.0 26.96445405 0.91576087 6.35
506 1 0.0 8.09768434 12.57966249 6.35
507 1 0.0 9.51686613 12.62786043 6.35
508 1 0.0 10.26819767 11.42291191 6.35
509 1 0.0 11.68737946 11.47110985 6.35
510 1 0.0 12.438711 10.26616134 6.35
511 1 0.0 13.85789279 10.31435928 6.35
512 1 0.0 14.60922433 9.10941077 6.35
513 1 0.0 16.02840612 9.15760871 6.35
514 1 0.0 16.77973766 7.95266019 6.35
515 1 0.0 18.19891945 8.00085813 6.35
516 1 0.0 18.95025099 6.79590962 6.35
517 1 0.0 20.36943278 6.84410756 6.35
518 1 0.0 21.12076432 5.63915905 6.35
519 1 0.0 22.53994611 5.68735699 6.35
520 1 0.0 23.29127764 4.48240847 6.35
521 1 0.0 24.71045944 4.53060641 6.35
522 1 0.0 25.46179097 3.3256579 6.35
523 1 0.0 26.88097276 3.37385584 6.35
524 1 0.0 27.6323043 2.16890733 6.35
525 1 0.0 29.05148609 2.21710527 6.35
526 1 0.0 29.80281763 1.01215675 6.35
527 1 0.0 31.22199942 1.06035469 6.35
528 1 0.0 9.43338485 15.0859554 6.35
529 1 0.0 10.18471639 13.88100688 6.35
530 1 0.0 11.60389818 13.92920482 6.35
531 1 0.0 12.35522972 12.72425631 6.35
532 1 0.0 13.77441151 12.77245425 6.35
533 1 0.0 14.52574305 11.56750574 6.35
534 1 0.0 15.94492484 11.61570368 6.35
535 1 0.0 16.69625638 10.41075516 6.35
536 1 0.0 18.11543817 10.4589531 6.35
537 1 0.0 18.8667697 9.25400459 6.35
538 1 0.0 20.2859515 9.30220253 6.35
539 1 0.0 21.03728303 8.09725401 6.35
540 1 0.0 22.45646483 8.14545196 6.35
541 1 0.0 23.20779636 6.94050344 6.35
542 1 0.0 24.62697815 6.98870138 6.35
543 1 0.0 25.37830969 5.78375287 6.35
544 1 0.0 26.79749148 5.83195081 6.35
545 1 0.0 27.54882302 4.62700229 6.35
546 1 0.0 28.96800481 4.67520023 6.35
547 1 0.0 29.71933635 3.47025172 6.35
548 1 0.0 31.13851814 3.51844966 6.35
549 1 0.0 31.88984968 2.31350115 6.35
550 1 0.0 33.30903147 2.36169909 6.35
551 1 0.0 34.06036301 1.15675057 6.35
552 1 0.0 35.4795448 1.20494851 6.35
553 1 0.0 10.10123511 16.33910185 6.35
554 1 0.0 11.5204169 16.38729979 6.35
555 1 0.0 12.27174844 15.18235128 6.35
556 1 0.0 13.69093023 15.23054922 6.35
557 1 0.0 14.44226176 14.0256007 6.35
558 1 0.0 15.86144356 14.07379864 6.35
559 1 0.0 16.61277509 12.86885013 6.35
560 1 0.0 18.03195689 12.91704807 6.35
561 1 0.0 18.78328842 11.71209956 6.35
562 1 0.0 20.20247021 11.7602975 6.35
563 1 0.0 20.95380175 10.55534898 6.35
564 1 0.0 22.37298354 10.60354692 6.35
565 1 0.0 23.12431508 9.39859841 6.35
566 1 0.0 24.54349687 9.44679635 6.35
567 1 0.0 25.29482841 8.24184784 6.35
568 1 0.0 26.7140102 8.29004578 6.35
569 1 0.0 27.46534174 7.08509726 6.35
570 1 0.0 28.88452353 7.1332952 6.35
571 1 0.0 29.63585507 5.92834669 6.35
572 1 0.0 31.05503686 5.97654463 6.35
573 1 0.0 31.8063684 4.77159612 6.35
574 1 0.0 33.22555019 4.81979406 6.35
575 1 0.0 33.97688172 3.61484554 6.35
576 1 0.0 35.39606352 3.66304348 6.35
577 1 0.0 36.14739505 2.45809497 6.35
578 1 0.0 37.56657685 2.50629291 6.35
579 1 0.0 11.43693562 18.84539476 6.35
580 1 0.0 12.18826715 17.64044625 6.35
581 1 0.0 13.60744895 17.68864419 6.35
582 1 0.0 14.35878048 16.48369567 6.35
583 1 0.0 15.77796227 16.53189361 6.35
584 1 0.0 16.52929381 15.3269451 6.35
585 1 0.0 17.9484756 15.37514304 6.35
586 1 0.0 18.69980714 14.17019453 6.35
587 1 0.0 20.11898893 14.21839247 6.35
588 1 0.0 20.87032047 13.01344395 6.35
589 1 0.0 22.28950226 13.06164189 6.35
590 1 0.0 23.0408338 11.85669338 6.35
591 1 0.0 24.46001559 11.90489132 6.35
592 1 0.0 25.21134713 10.69994281 6.35
593 1 0.0 26.63052892 10.74814075 6.35
594 1 0.0 27.38186046 9.54319223 6.35
595 1 0.0 28.80104225 9.59139017 6.35
596 1 0.0 29.55237378 8.38644166 6.35
597 1 0.0 30.97155558 8.4346396 6.35
598 1 0.0 31.72288711 7.22969108 6.35
599 1 0.0 33.14206891 7.27788903 6.35
600 1 0.0 33.89340044 6.07294051 6.35
601 1 0.0 35.31258223 6.12113845 6.35
602 1 0.0 36.06391377 4.91618994 6.35
603 1 0.0 37.48309556 4.96438788 6.35
604 1 0.0 38.2344271 3.75943936 6.35
605 1 0.0 12.10478587 20.09854122 6.35
606 1 0.0 13.52396766 20.14673916 6.35
607 1 0.0 14.2752992 18.94179064 6.35
608 1 0.0 15.69448099 18.98998858 6.35
609 1 0.0 16.44581253 17.78504007 6.35
610 1 0.0 17.86499432 17.83323801 6.35
611 1 0.0 18.61632586 16.62828949 6.35
612 1 0.0 20.03550765 16.67648744 6.35
613 1 0.0 20.78683919 15.47153892 6.35
614 1 0.0 22.20602098 15.51973686 6.35
615 1 0.0 22.95735252 14.31478835 6.35
616 1 0.0 24.37653431 14.36298629 6.35
617 1 0.0 25.12786585 13.15803777 6.35
618 1 0.0 26.54704764 13.20623571 6.35
619 1 0.0 27.29837917 12.0012872 6.35
620 1 0.0 28.71756097 12.04948514 6.35
621 1 0.0 29.4688925 10.84453663 6.35
622 1 0.0 30.88807429 10.89273457 6.35
623 1 0.0 31.63940583 9.68778605 6.35
624 1 0.0 33.05858762 9.73598399 6.35
625 1 0.0 33.80991916 8.53103548 6.35
626 1 0.0 35.22910095 8.57923342 6.35
627 1 0.0 35.98043249 7.37428491 6.35
628 1 0.0 37.39961428 7.42248285 6.35
629 1 0.0 38.15094582 6.21753433 6.35
630 1 0.0 39.57012761 6.26573227 6.35
631 1 0.0 13.44048638 22.60483412 6.35
632 1 0.0 14.19181792 21.39988561 6.35
633 1 0.0 15.61099971 21.44808355 6.35
634 1 0.0 16.36233125 20.24313504 6.35
635 1 0.0 17.78151304 20.29133298 6.35
636 1 0.0 18.53284458 19.08638446 6.35
637 1 0.0 19.95202637 19.1345824 6.35
638 1 0.0 20.70335791 17.92963389 6.35
639 1 0.0 22.1225397 17.97783183 6.35
640 1 0.0 22.87387123 16.77288332 6.35
641 1 0.0 24.29305303 16.82108126 6.35
642 1 0.0 25.04438456 15.61613274 6.35
643 1 0.0 26.46356636 15.66433068 6.35
644 1 0.0 27.21489789 14.45938217 6.35
645 1 0.0 28.63407968 14.50758011 6.35
646 1 0.0 29.38541122 13.3026316 6.35
647 1 0.0 30.80459301 13.35082954 6.35
648 1 0.0 31.55592455 12.14588102 6.35
649 1 0.0 32.97510634 12.19407896 6.35
650 1 0.0 33.72643788 10.98913045 6.35
651 1 0.0 35.14561967 11.03732839 6.35
652 1 0.0 35.89695121 9.83237988 6.35
653 1 0.0 37.316133 9.88057782 6.35
654 1 0.0 38.06746454 8.6756293 6.35
655 1 0.0 39.48664633 8.72382724 6.35
656 1 0.0 40.23797787 7.51887873 6.35
657 1 0.0 14.10833664 23.85798058 6.35
658 1 0.0 15.52751843 23.90617852 6.35
659 1 0.0 16.27884997 22.70123001 6.35
660 1 0.0 17.69803176 22.74942795 6.35
661 1 0.0 18.44936329 21.54447943 6.35
662 1 0.0 19.86854509 21.59267737 6.35
663 1 0.0 20.61987662 20.38772886 6.35
664 1 0.0 22.03905842 20.4359268 6.35
665 1 0.0 22.79038995 19.23097829 6.35
666 1 0.0 24.20957174 19.27917623 6.35
667 1 0.0 24.96090328 18.07422771 6.35
668 1 0.0 26.38008507 18.12242565 6.35
669 1 0.0 27.13141661 16.91747714 6.35
670 1 0.0 28.5505984 16.96567508 6.35
671 1 0.0 29.30192994 15.76072656 6.35
672 1 0.0 30.72111173 15.80892451 6.35
673 1 0.0 31.47244327 14.60397599 6.35
674 1 0.0 32.89162506 14.65217393 6.35
675 1 0.0 33.6429566 13.44722542 6.35
676 1 0.0 35.06213839 13.49542336 6.35
677 1 0.0 35.81346993 12.29047484 6.35
678 1 0.0 37.23265172 12.33867278 6.35
679 1 0.0 37.98398325 11.13372427 6.35
680 1 0.0 39.40316505 11.18192221 6.35
681 1 0.0 40.15449658 9.9769737 6.35
682 1 0.0 41.57367838 10.02517164 6.35
683 1 0.0 15.44403715 26.36427349 6.35
684 1 0.0 16.19536868 25.15932497 6.35
685 1 0.0 17.61455048 25.20752292 6.35
686 1 0.0 18.36588201 24.0025744 6.35
687 1 0.0 19.78506381 24.05077234 6.35
688 1 0.0 20.53639534 22.84582383 6.35
689 1 0.0 21.95557713 22.89402177 6.35
690 1 0.0 22.70690867 21.68907325 6.35
691 1 0.0 24.12609046 21.73727119 6.35
692 1 0.0 24.877422 20.53232268 6.35
693 1 0.0 26.29660379 20.58052062 6.35
694 1 0.0 27.04793533 19.37557211 6.35
695 1 0.0 28.46711712 19.42377005 6.35
696 1 0.0 29.21844866 18.21882153 6.35
697 1 0.0 30.63763045 18.26701947 6.35
698 1 0.0 31.38896199 17.06207096 6.35
699 1 0.0 32.80814378 17.1102689 6.35
700 1 0.0 33.55947531 15.90532039 6.35
701 1 0.0 34.97865711 15.95351833 6.35
702 1 0.0 35.72998864 14.74856981 6.35
703 1 0.0 37.14917044 14.79676775 6.35
704 1 0.0 37.90050197 13.59181924 6.35
705 1 0.0 39.31968376 13.64001718 6.35
706 1 0.0 40.0710153 12.43506867 6.35
707 1 0.0 41.49019709 12.48326661 6.35
708 1 0.0 42.24152863 11.27831809 6.35
709 1 0.0 16.1118874 27.61741994 6.35
710 1 0.0 17.53106919 27.66561788 6.35
711 1 0.0 18.28240073 26.46066937 6.35
712 1 0.0 19.70158252 26.50886731 6.35
713 1 0.0 20.45291406 25.3039188 6.35
714 1 0.0 21.87209585 25.35211674 6.35
715 1 0.0 22.62342739 24.14716822 6.35
716 1 0.0 24.04260918 24.19536616 6.35
717 1 0.0 24.79394072 22.99041765 6.35
718 1 0.0 26.21312251 23.03861559 6.35
719 1 0.0 26.96445405 21.83366708 6.35
720 1 0.0 28.38363584 21.88186502 6.35
721 1 0.0 29.13496738 20.6769165 6.35
722 1 0.0 30.55414917 20.72511444 6.35
723 1 0.0 31.3054807 19.52016593 6.35
724 1 0.0 32.7246625 19.56836387 6.35
725 1 0.0 33.47599403 18.36341536 6.35
726 1 0.0 34.89517582 18.4116133 6.35
727 1 0.0 35.64650736 17.20666478 6.35
728 1 0.0 37.06568915 17.25486272 6.35
729 1 0.0 37.81702069 16.04991421 6.35
730 1 0.0 39.23620248 16.09811215 6.35
731 1 0.0 39.98753402 14.89316363 6.35
732 1 0.0 41.40671581 14.94136157 6.35
733 1 0.0 42.15804735 13.73641306 6.35
734 1 0.0 43.57722914 13.784611 6.35
735 1 0.0 17.44758791 30.12371285 6.35
736 1 0.0 18.19891945 28.91876434 6.35
737 1 0.0 19.61810124 28.96696228 6.35
738 1 0.0 20.36943278 27.76201377 6.35
739 1 0.0 21.78861457 27.81021171 6.35
740 1 0.0 22.53994611 26.60526319 6.35
741 1 0.0 23.9591279 26.65346113 6.35
742 1 0.0 24.71045944 25.44851262 6.35
743 1 0.0 26.12964123 25.49671056 6.35
744 1 0.0 26.88097276 24.29176204 6.35
745 1 0.0 28.30015456 24.33995999 6.35
746 1 0.0 29.05148609 23.13501147 6.35
747 1 0.0 30.47066789 23.18320941 6.35
748 1 0.0 31.22199942 21.9782609 6.35
749 1 0.0 32.64118121 22.02645884 6.35
750 1 0.0 33.39251275 20.82151032 6.35
751 1 0.0 34.81169454 20.86970826 6.35
752 1 0.0 35.56302608 19.66475975 6.35
753 1 0.0 36.98220787 19.71295769 6.35
754 1 0.0 37.73353941 18.50800918 6.35
755 1 0.0 39.1527212 18.55620712 6.35
756 1 0.0 39.90405274 17.3512586 6.35
757 1 0.0 41.32323453 17.39945654 6.35
758 1 0.0 42.07456607 16.19450803 6.35
759 1 0.0 43.49374786 16.24270597 6.35
760 1 0.0 44.2450794 15.03775746 6.35
761 1 0.0 20.2859515 30.22010873 6.35
762 1 0.0 21.70513329 30.26830667 6.35
763 1 0.0 22.45646483 29.06335816 6.35
764 1 0.0 23.87564662 29.1115561 6.35
765 1 0.0 24.62697815 27.90660759 6.35
766 1 0.0 26.04615995 27.95480553 6.35
767 1 0.0 26.79749148 26.74985701 6.35
768 1 0.0 28.21667327 26.79805495 6.35
769 1 0.0 28.96800481 25.59310644 6.35
770 1 0.0 30.3871866 25.64130438 6.35
771 1 0.0 31.13851814 24.43635587 6.35
772 1 0.0 32.55769993 24.48455381 6.35
773 1 0.0 33.30903147 23.27960529 6.35
774 1 0.0 34.72821326 23.32780323 6.35
775 1 0.0 35.4795448 22.12285472 6.35
776 1 0.0 36.89872659 22.17105266 6.35
777 1 0.0 37.65005813 20.96610415 6.35
778 1 0.0 39.06923992 21.01430209 6.35
779 1 0.0 39.82057146 19.80935357 6.35
780 1 0.0 41.23975325 19.85755151 6.35
781 1 0.0 41.99108478 18.652603 6.35
782 1 0.0 43.41026658 18.70080094 6.35
783 1 0.0 44.16159811 17.49585242 6.35
784 1 0.0 45.58077991 17.54405037 6.35
785 1 0.0 24.54349687 30.36470256 6.35
786 1 0.0 25.96267866 30.4129005 6.35
787 1 0.0 26.7140102 29.20795198 6.35
788 1 0.0 28.13319199 29.25614992 6.35
789 1 0.0 28.88452353 28.05120141 6.35
790 1 0.0 30.30370532 28.09939935 6.35
791 1 0.0 31.05503686 26.89445083 6.35