# LAMMPS data file written by OVITO Basic 3.5.4
676 atoms
1 atom types
0.0 31.9736579077 xlo xhi
0.0 27.69 ylo yhi
2 7.35 zlo zhi
15.9868289539 0.0 0.0 xy xz yz

Masses

1 12.0107  # C

Atoms  # charge

1 1 0.0 0.0 0.0 3.0
2 1 0.0 1.51354594 2.40307692 3.0
3 1 0.0 2.17572228 1.14692308 3.0
4 1 0.0 3.5946716 1.09230769 3.0
5 1 0.0 2.2703189 3.60461538 3.0
6 1 0.0 3.68926822 3.55 3.0
7 1 0.0 4.35144457 2.29384615 3.0
8 1 0.0 5.77039388 2.23923077 3.0
9 1 0.0 6.43257023 0.98307692 3.0
10 1 0.0 7.85151955 0.92846154 3.0
11 1 0.0 3.78386484 6.00769231 3.0
12 1 0.0 4.44604119 4.75153846 3.0
13 1 0.0 5.8649905 4.69692308 3.0
14 1 0.0 6.52716685 3.44076923 3.0
15 1 0.0 7.94611617 3.38615385 3.0
16 1 0.0 8.60829251 2.13 3.0
17 1 0.0 10.02724183 2.07538462 3.0
18 1 0.0 10.68941818 0.81923077 3.0
19 1 0.0 12.10836749 0.76461538 3.0
20 1 0.0 4.54063781 7.20923077 3.0
21 1 0.0 5.95958712 7.15461538 3.0
22 1 0.0 6.62176347 5.89846154 3.0
23 1 0.0 8.04071279 5.84384615 3.0
24 1 0.0 8.70288913 4.58769231 3.0
25 1 0.0 10.12183845 4.53307692 3.0
26 1 0.0 10.7840148 3.27692308 3.0
27 1 0.0 12.20296411 3.22230769 3.0
28 1 0.0 12.86514046 1.96615385 3.0
29 1 0.0 14.28408978 1.91153846 3.0
30 1 0.0 14.94626612 0.65538462 3.0
31 1 0.0 16.36521544 0.60076923 3.0
32 1 0.0 6.05418375 9.61230769 3.0
33 1 0.0 6.71636009 8.35615385 3.0
34 1 0.0 8.13530941 8.30153846 3.0
35 1 0.0 8.79748576 7.04538462 3.0
36 1 0.0 10.21643507 6.99076923 3.0
37 1 0.0 10.87861142 5.73461538 3.0
38 1 0.0 12.29756073 5.68 3.0
39 1 0.0 12.95973708 4.42384615 3.0
40 1 0.0 14.3786864 4.36923077 3.0
41 1 0.0 15.04086274 3.11307692 3.0
42 1 0.0 16.45981206 3.05846154 3.0
43 1 0.0 17.12198841 1.80230769 3.0
44 1 0.0 18.54093772 1.74769231 3.0
45 1 0.0 19.20311407 0.49153846 3.0
46 1 0.0 20.62206338 0.43692308 3.0
47 1 0.0 6.81095671 10.81384615 3.0
48 1 0.0 8.22990603 10.75923077 3.0
49 1 0.0 8.89208238 9.50307692 3.0
50 1 0.0 10.31103169 9.44846154 3.0
51 1 0.0 10.97320804 8.19230769 3.0
52 1 0.0 12.39215735 8.13769231 3.0
53 1 0.0 13.0543337 6.88153846 3.0
54 1 0.0 14.47328302 6.82692308 3.0
55 1 0.0 15.13545936 5.57076923 3.0
56 1 0.0 16.55440868 5.51615385 3.0
57 1 0.0 17.21658503 4.26 3.0
58 1 0.0 18.63553434 4.20538462 3.0
59 1 0.0 19.29771069 2.94923077 3.0
60 1 0.0 20.71666001 2.89461538 3.0
61 1 0.0 21.37883635 1.63846154 3.0
62 1 0.0 22.79778567 1.58384615 3.0
63 1 0.0 23.45996202 0.32769231 3.0
64 1 0.0 24.87891133 0.27307692 3.0
65 1 0.0 8.32450265 13.21692308 3.0
66 1 0.0 8.986679 11.96076923 3.0
67 1 0.0 10.40562831 11.90615385 3.0
68 1 0.0 11.06780466 10.65 3.0
69 1 0.0 12.48675398 10.59538462 3.0
70 1 0.0 13.14893032 9.33923077 3.0
71 1 0.0 14.56787964 9.28461538 3.0
72 1 0.0 15.23005599 8.02846154 3.0
73 1 0.0 16.6490053 7.97384615 3.0
74 1 0.0 17.31118165 6.71769231 3.0
75 1 0.0 18.73013096 6.66307692 3.0
76 1 0.0 19.39230731 5.40692308 3.0
77 1 0.0 20.81125663 5.35230769 3.0
78 1 0.0 21.47343297 4.09615385 3.0
79 1 0.0 22.89238229 4.04153846 3.0
80 1 0.0 23.55455864 2.78538462 3.0
81 1 0.0 24.97350795 2.73076923 3.0
82 1 0.0 25.6356843 1.47461538 3.0
83 1 0.0 27.05463361 1.42 3.0
84 1 0.0 27.71680996 0.16384615 3.0
85 1 0.0 29.13575928 0.10923077 3.0
86 1 0.0 9.08127562 14.41846154 3.0
87 1 0.0 10.50022493 14.36384615 3.0
88 1 0.0 11.16240128 13.10769231 3.0
89 1 0.0 12.5813506 13.05307692 3.0
90 1 0.0 13.24352694 11.79692308 3.0
91 1 0.0 14.66247626 11.74230769 3.0
92 1 0.0 15.32465261 10.48615385 3.0
93 1 0.0 16.74360192 10.43153846 3.0
94 1 0.0 17.40577827 9.17538462 3.0
95 1 0.0 18.82472758 9.12076923 3.0
96 1 0.0 19.48690393 7.86461538 3.0
97 1 0.0 20.90585325 7.81 3.0
98 1 0.0 21.56802959 6.55384615 3.0
99 1 0.0 22.98697891 6.49923077 3.0
100 1 0.0 23.64915526 5.24307692 3.0
101 1 0.0 25.06810457 5.18846154 3.0
102 1 0.0 25.73028092 3.93230769 3.0
103 1 0.0 27.14923024 3.87769231 3.0
104 1 0.0 27.81140658 2.62153846 3.0
105 1 0.0 29.2303559 2.56692308 3.0
106 1 0.0 29.89253225 1.31076923 3.0
107 1 0.0 31.31148156 1.25615385 3.0
108 1 0.0 10.59482156 16.82153846 3.0
109 1 0.0 11.2569979 15.56538462 3.0
110 1 0.0 12.67594722 15.51076923 3.0
111 1 0.0 13.33812357 14.25461538 3.0
112 1 0.0 14.75707288 14.2 3.0
113 1 0.0 15.41924923 12.94384615 3.0
114 1 0.0 16.83819854 12.88923077 3.0
115 1 0.0 17.50037489 11.63307692 3.0
116 1 0.0 18.91932421 11.57846154 3.0
117 1 0.0 19.58150055 10.32230769 3.0
118 1 0.0 21.00044987 10.26769231 3.0
119 1 0.0 21.66262622 9.01153846 3.0
120 1 0.0 23.08157553 8.95692308 3.0
121 1 0.0 23.74375188 7.70076923 3.0
122 1 0.0 25.16270119 7.64615385 3.0
123 1 0.0 25.82487754 6.39 3.0
124 1 0.0 27.24382686 6.33538462 3.0
125 1 0.0 27.9060032 5.07923077 3.0
126 1 0.0 29.32495252 5.02461538 3.0
127 1 0.0 29.98712887 3.76846154 3.0
128 1 0.0 31.40607818 3.71384615 3.0
129 1 0.0 32.06825453 2.45769231 3.0
130 1 0.0 11.35159452 18.02307692 3.0
131 1 0.0 12.77054384 17.96846154 3.0
132 1 0.0 13.43272019 16.71230769 3.0
133 1 0.0 14.8516695 16.65769231 3.0
134 1 0.0 15.51384585 15.40153846 3.0
135 1 0.0 16.93279516 15.34692308 3.0
136 1 0.0 17.59497151 14.09076923 3.0
137 1 0.0 19.01392083 14.03615385 3.0
138 1 0.0 19.67609717 12.78 3.0
139 1 0.0 21.09504649 12.72538462 3.0
140 1 0.0 21.75722284 11.46923077 3.0
141 1 0.0 23.17617215 11.41461538 3.0
142 1 0.0 23.8383485 10.15846154 3.0
143 1 0.0 25.25729781 10.10384615 3.0
144 1 0.0 25.91947416 8.84769231 3.0
145 1 0.0 27.33842348 8.79307692 3.0
146 1 0.0 28.00059982 7.53692308 3.0
147 1 0.0 29.41954914 7.48230769 3.0
148 1 0.0 30.08172549 6.22615385 3.0
149 1 0.0 31.5006748 6.17153846 3.0
150 1 0.0 32.16285115 4.91538462 3.0
151 1 0.0 33.58180047 4.86076923 3.0
152 1 0.0 12.86514046 20.42615385 3.0
153 1 0.0 13.52731681 19.17 3.0
154 1 0.0 14.94626612 19.11538462 3.0
155 1 0.0 15.60844247 17.85923077 3.0
156 1 0.0 17.02739179 17.80461538 3.0
157 1 0.0 17.68956813 16.54846154 3.0
158 1 0.0 19.10851745 16.49384615 3.0
159 1 0.0 19.7706938 15.23769231 3.0
160 1 0.0 21.18964311 15.18307692 3.0
161 1 0.0 21.85181946 13.92692308 3.0
162 1 0.0 23.27076877 13.87230769 3.0
163 1 0.0 23.93294512 12.61615385 3.0
164 1 0.0 25.35189444 12.56153846 3.0
165 1 0.0 26.01407078 11.30538462 3.0
166 1 0.0 27.4330201 11.25076923 3.0
167 1 0.0 28.09519645 9.99461538 3.0
168 1 0.0 29.51414576 9.94 3.0
169 1 0.0 30.17632211 8.68384615 3.0
170 1 0.0 31.59527142 8.62923077 3.0
171 1 0.0 32.25744777 7.37307692 3.0
172 1 0.0 33.67639709 7.31846154 3.0
173 1 0.0 34.33857343 6.06230769 3.0
174 1 0.0 13.62191343 21.62769231 3.0
175 1 0.0 15.04086274 21.57307692 3.0
176 1 0.0 15.70303909 20.31692308 3.0
177 1 0.0 17.12198841 20.26230769 3.0
178 1 0.0 17.78416475 19.00615385 3.0
179 1 0.0 19.20311407 18.95153846 3.0
180 1 0.0 19.86529042 17.69538462 3.0
181 1 0.0 21.28423973 17.64076923 3.0
182 1 0.0 21.94641608 16.38461538 3.0
183 1 0.0 23.36536539 16.33 3.0
184 1 0.0 24.02754174 15.07384615 3.0
185 1 0.0 25.44649106 15.01923077 3.0
186 1 0.0 26.1086674 13.76307692 3.0
187 1 0.0 27.52761672 13.70846154 3.0
188 1 0.0 28.18979307 12.45230769 3.0
189 1 0.0 29.60874238 12.39769231 3.0
190 1 0.0 30.27091873 11.14153846 3.0
191 1 0.0 31.68986804 11.08692308 3.0
192 1 0.0 32.35204439 9.83076923 3.0
193 1 0.0 33.77099371 9.77615385 3.0
194 1 0.0 34.43317005 8.52 3.0
195 1 0.0 35.85211937 8.46538462 3.0
196 1 0.0 15.13545936 24.03076923 3.0
197 1 0.0 15.79763571 22.77461538 3.0
198 1 0.0 17.21658503 22.72 3.0
199 1 0.0 17.87876137 21.46384615 3.0
200 1 0.0 19.29771069 21.40923077 3.0
201 1 0.0 19.95988704 20.15307692 3.0
202 1 0.0 21.37883635 20.09846154 3.0
203 1 0.0 22.0410127 18.84230769 3.0
204 1 0.0 23.45996202 18.78769231 3.0
205 1 0.0 24.12213836 17.53153846 3.0
206 1 0.0 25.54108768 17.47692308 3.0
207 1 0.0 26.20326402 16.22076923 3.0
208 1 0.0 27.62221334 16.16615385 3.0
209 1 0.0 28.28438969 14.91 3.0
210 1 0.0 29.703339 14.85538462 3.0
211 1 0.0 30.36551535 13.59923077 3.0
212 1 0.0 31.78446467 13.54461538 3.0
213 1 0.0 32.44664101 12.28846154 3.0
214 1 0.0 33.86559033 12.23384615 3.0
215 1 0.0 34.52776668 10.97769231 3.0
216 1 0.0 35.94671599 10.92307692 3.0
217 1 0.0 36.60889234 9.66692308 3.0
218 1 0.0 15.89223233 25.23230769 3.0
219 1 0.0 17.31118165 25.17769231 3.0
220 1 0.0 17.973358 23.92153846 3.0
221 1 0.0 19.39230731 23.86692308 3.0
222 1 0.0 20.05448366 22.61076923 3.0
223 1 0.0 21.47343297 22.55615385 3.0
224 1 0.0 22.13560932 21.3 3.0
225 1 0.0 23.55455864 21.24538462 3.0
226 1 0.0 24.21673498 19.98923077 3.0
227 1 0.0 25.6356843 19.93461538 3.0
228 1 0.0 26.29786065 18.67846154 3.0
229 1 0.0 27.71680996 18.62384615 3.0
230 1 0.0 28.37898631 17.36769231 3.0
231 1 0.0 29.79793562 17.31307692 3.0
232 1 0.0 30.46011197 16.05692308 3.0
233 1 0.0 31.87906129 16.00230769 3.0
234 1 0.0 32.54123763 14.74615385 3.0
235 1 0.0 33.96018695 14.69153846 3.0
236 1 0.0 34.6223633 13.43538462 3.0
237 1 0.0 36.04131261 13.38076923 3.0
238 1 0.0 36.70348896 12.12461538 3.0
239 1 0.0 38.12243827 12.07 3.0
240 1 0.0 17.40577827 27.63538462 3.0
241 1 0.0 18.06795462 26.37923077 3.0
242 1 0.0 19.48690393 26.32461538 3.0
243 1 0.0 20.14908028 25.06846154 3.0
244 1 0.0 21.56802959 25.01384615 3.0
245 1 0.0 22.23020594 23.75769231 3.0
246 1 0.0 23.64915526 23.70307692 3.0
247 1 0.0 24.3113316 22.44692308 3.0
248 1 0.0 25.73028092 22.39230769 3.0
249 1 0.0 26.39245727 21.13615385 3.0
250 1 0.0 27.81140658 21.08153846 3.0
251 1 0.0 28.47358293 19.82538462 3.0
252 1 0.0 29.89253225 19.77076923 3.0
253 1 0.0 30.55470859 18.51461538 3.0
254 1 0.0 31.97365791 18.46 3.0
255 1 0.0 32.63583425 17.20384615 3.0
256 1 0.0 34.05478357 17.14923077 3.0
257 1 0.0 34.71695992 15.89307692 3.0
258 1 0.0 36.13590923 15.83846154 3.0
259 1 0.0 36.79808558 14.58230769 3.0
260 1 0.0 38.2170349 14.52769231 3.0
261 1 0.0 38.87921124 13.27153846 3.0
262 1 0.0 20.2436769 27.52615385 3.0
263 1 0.0 21.66262622 27.47153846 3.0
264 1 0.0 22.32480256 26.21538462 3.0
265 1 0.0 23.74375188 26.16076923 3.0
266 1 0.0 24.40592823 24.90461538 3.0
267 1 0.0 25.82487754 24.85 3.0
268 1 0.0 26.48705389 23.59384615 3.0
269 1 0.0 27.9060032 23.53923077 3.0
270 1 0.0 28.56817955 22.28307692 3.0
271 1 0.0 29.98712887 22.22846154 3.0
272 1 0.0 30.64930521 20.97230769 3.0
273 1 0.0 32.06825453 20.91769231 3.0
274 1 0.0 32.73043088 19.66153846 3.0
275 1 0.0 34.14938019 19.60692308 3.0
276 1 0.0 34.81155654 18.35076923 3.0
277 1 0.0 36.23050585 18.29615385 3.0
278 1 0.0 36.8926822 17.04 3.0
279 1 0.0 38.31163152 16.98538462 3.0
280 1 0.0 38.97380786 15.72923077 3.0
281 1 0.0 40.39275718 15.67461538 3.0
282 1 0.0 24.50052485 27.36230769 3.0
283 1 0.0 25.91947416 27.30769231 3.0
284 1 0.0 26.58165051 26.05153846 3.0
285 1 0.0 28.00059982 25.99692308 3.0
286 1 0.0 28.66277617 24.74076923 3.0
287 1 0.0 30.08172549 24.68615385 3.0
288 1 0.0 30.74390183 23.43 3.0
289 1 0.0 32.16285115 23.37538462 3.0
290 1 0.0 32.8250275 22.11923077 3.0
291 1 0.0 34.24397681 22.06461538 3.0
292 1 0.0 34.90615316 20.80846154 3.0
293 1 0.0 36.32510248 20.75384615 3.0
294 1 0.0 36.98727882 19.49769231 3.0
295 1 0.0 38.40622814 19.44307692 3.0
296 1 0.0 39.06840448 18.18692308 3.0
297 1 0.0 40.4873538 18.13230769 3.0
298 1 0.0 41.14953015 16.87615385 3.0
299 1 0.0 28.75737279 27.19846154 3.0
300 1 0.0 30.17632211 27.14384615 3.0
301 1 0.0 30.83849846 25.88769231 3.0
302 1 0.0 32.25744777 25.83307692 3.0
303 1 0.0 32.91962412 24.57692308 3.0
304 1 0.0 34.33857343 24.52230769 3.0
305 1 0.0 35.00074978 23.26615385 3.0
306 1 0.0 36.4196991 23.21153846 3.0
307 1 0.0 37.08187544 21.95538462 3.0
308 1 0.0 38.50082476 21.90076923 3.0
309 1 0.0 39.16300111 20.64461538 3.0
310 1 0.0 40.58195042 20.59 3.0
311 1 0.0 41.24412677 19.33384615 3.0
312 1 0.0 42.66307608 19.27923077 3.0
313 1 0.0 33.01422074 27.03461538 3.0
314 1 0.0 34.43317005 26.98 3.0
315 1 0.0 35.0953464 25.72384615 3.0
316 1 0.0 36.51429572 25.66923077 3.0
317 1 0.0 37.17647206 24.41307692 3.0
318 1 0.0 38.59542138 24.35846154 3.0
319 1 0.0 39.25759773 23.10230769 3.0
320 1 0.0 40.67654704 23.04769231 3.0
321 1 0.0 41.33872339 21.79153846 3.0
322 1 0.0 42.75767271 21.73692308 3.0
323 1 0.0 43.41984905 20.48076923 3.0
324 1 0.0 37.27106869 26.87076923 3.0
325 1 0.0 38.690018 26.81615385 3.0
326 1 0.0 39.35219435 25.56 3.0
327 1 0.0 40.77114366 25.50538462 3.0
328 1 0.0 41.43332001 24.24923077 3.0
329 1 0.0 42.85226933 24.19461538 3.0
330 1 0.0 43.51444567 22.93846154 3.0
331 1 0.0 44.93339499 22.88384615 3.0
332 1 0.0 41.52791663 26.70692308 3.0
333 1 0.0 42.94686595 26.65230769 3.0
334 1 0.0 43.60904229 25.39615385 3.0
335 1 0.0 45.02799161 25.34153846 3.0
336 1 0.0 45.69016796 24.08538462 3.0
337 1 0.0 45.78476458 26.54307692 3.0
338 1 0.0 47.20371389 26.48846154 3.0
339 1 0.0 0.0 0.0 6.35
340 1 0.0 1.41894932 0.05461538 6.35
341 1 0.0 2.08112566 1.31076923 6.35
342 1 0.0 3.50007498 1.36538462 6.35
343 1 0.0 4.25684795 0.16384615 6.35
344 1 0.0 5.67579726 0.21846154 6.35
345 1 0.0 3.40547836 3.82307692 6.35
346 1 0.0 4.16225133 2.62153846 6.35
347 1 0.0 5.58120064 2.67615385 6.35
348 1 0.0 6.33797361 1.47461538 6.35
349 1 0.0 7.75692292 1.52923077 6.35
350 1 0.0 8.51369589 0.32769231 6.35
351 1 0.0 9.93264521 0.38230769 6.35
352 1 0.0 4.0676547 5.07923077 6.35
353 1 0.0 5.48660402 5.13384615 6.35
354 1 0.0 6.24337699 3.93230769 6.35
355 1 0.0 7.6623263 3.98692308 6.35
356 1 0.0 8.41909927 2.78538462 6.35
357 1 0.0 9.83804859 2.84 6.35
358 1 0.0 10.59482156 1.63846154 6.35
359 1 0.0 12.01377087 1.69307692 6.35
360 1 0.0 12.77054384 0.49153846 6.35
361 1 0.0 14.18949315 0.54615385 6.35
362 1 0.0 5.3920074 7.59153846 6.35
363 1 0.0 6.14878037 6.39 6.35
364 1 0.0 7.56772968 6.44461538 6.35
365 1 0.0 8.32450265 5.24307692 6.35
366 1 0.0 9.74345197 5.29769231 6.35
367 1 0.0 10.50022493 4.09615385 6.35
368 1 0.0 11.91917425 4.15076923 6.35
369 1 0.0 12.67594722 2.94923077 6.35
370 1 0.0 14.09489653 3.00384615 6.35
371 1 0.0 14.8516695 1.80230769 6.35
372 1 0.0 16.27061882 1.85692308 6.35
373 1 0.0 17.02739179 0.65538462 6.35
374 1 0.0 18.4463411 0.71 6.35
375 1 0.0 6.05418375 8.84769231 6.35
376 1 0.0 7.47313306 8.90230769 6.35
377 1 0.0 8.22990603 7.70076923 6.35
378 1 0.0 9.64885534 7.75538462 6.35
379 1 0.0 10.40562831 6.55384615 6.35
380 1 0.0 11.82457763 6.60846154 6.35
381 1 0.0 12.5813506 5.40692308 6.35
382 1 0.0 14.00029991 5.46153846 6.35
383 1 0.0 14.75707288 4.26 6.35
384 1 0.0 16.1760222 4.31461538 6.35
385 1 0.0 16.93279516 3.11307692 6.35
386 1 0.0 18.35174448 3.16769231 6.35
387 1 0.0 19.10851745 1.96615385 6.35
388 1 0.0 20.52746676 2.02076923 6.35
389 1 0.0 21.28423973 0.81923077 6.35
390 1 0.0 22.70318905 0.87384615 6.35
391 1 0.0 7.37853644 11.36 6.35
392 1 0.0 8.13530941 10.15846154 6.35
393 1 0.0 9.55425872 10.21307692 6.35
394 1 0.0 10.31103169 9.01153846 6.35
395 1 0.0 11.72998101 9.06615385 6.35
396 1 0.0 12.48675398 7.86461538 6.35
397 1 0.0 13.90570329 7.91923077 6.35
398 1 0.0 14.66247626 6.71769231 6.35
399 1 0.0 16.08142557 6.77230769 6.35
400 1 0.0 16.83819854 5.57076923 6.35
401 1 0.0 18.25714786 5.62538462 6.35
402 1 0.0 19.01392083 4.42384615 6.35
403 1 0.0 20.43287014 4.47846154 6.35
404 1 0.0 21.18964311 3.27692308 6.35
405 1 0.0 22.60859243 3.33153846 6.35
406 1 0.0 23.36536539 2.13 6.35
407 1 0.0 24.78431471 2.18461538 6.35
408 1 0.0 25.54108768 0.98307692 6.35
409 1 0.0 26.96003699 1.03769231 6.35
410 1 0.0 8.04071279 12.61615385 6.35
411 1 0.0 9.4596621 12.67076923 6.35
412 1 0.0 10.21643507 11.46923077 6.35
413 1 0.0 11.63538439 11.52384615 6.35
414 1 0.0 12.39215735 10.32230769 6.35
415 1 0.0 13.81110667 10.37692308 6.35
416 1 0.0 14.56787964 9.17538462 6.35
417 1 0.0 15.98682895 9.23 6.35
418 1 0.0 16.74360192 8.02846154 6.35
419 1 0.0 18.16255124 8.08307692 6.35
420 1 0.0 18.91932421 6.88153846 6.35
421 1 0.0 20.33827352 6.93615385 6.35
422 1 0.0 21.09504649 5.73461538 6.35
423 1 0.0 22.5139958 5.78923077 6.35
424 1 0.0 23.27076877 4.58769231 6.35
425 1 0.0 24.68971809 4.64230769 6.35
426 1 0.0 25.44649106 3.44076923 6.35
427 1 0.0 26.86544037 3.49538462 6.35
428 1 0.0 27.62221334 2.29384615 6.35
429 1 0.0 29.04116266 2.34846154 6.35
430 1 0.0 29.79793562 1.14692308 6.35
431 1 0.0 31.21688494 1.20153846 6.35
432 1 0.0 9.36506548 15.12846154 6.35
433 1 0.0 10.12183845 13.92692308 6.35
434 1 0.0 11.54078777 13.98153846 6.35
435 1 0.0 12.29756073 12.78 6.35
436 1 0.0 13.71651005 12.83461538 6.35
437 1 0.0 14.47328302 11.63307692 6.35
438 1 0.0 15.89223233 11.68769231 6.35
439 1 0.0 16.6490053 10.48615385 6.35
440 1 0.0 18.06795462 10.54076923 6.35
441 1 0.0 18.82472758 9.33923077 6.35
442 1 0.0 20.2436769 9.39384615 6.35
443 1 0.0 21.00044987 8.19230769 6.35
444 1 0.0 22.41939918 8.24692308 6.35
445 1 0.0 23.17617215 7.04538462 6.35
446 1 0.0 24.59512147 7.1 6.35
447 1 0.0 25.35189444 5.89846154 6.35
448 1 0.0 26.77084375 5.95307692 6.35
449 1 0.0 27.52761672 4.75153846 6.35
450 1 0.0 28.94656603 4.80615385 6.35
451 1 0.0 29.703339 3.60461538 6.35
452 1 0.0 31.12228832 3.65923077 6.35
453 1 0.0 31.87906129 2.45769231 6.35
454 1 0.0 33.2980106 2.51230769 6.35
455 1 0.0 10.02724183 16.38461538 6.35
456 1 0.0 11.44619114 16.43923077 6.35
457 1 0.0 12.20296411 15.23769231 6.35
458 1 0.0 13.62191343 15.29230769 6.35
459 1 0.0 14.3786864 14.09076923 6.35
460 1 0.0 15.79763571 14.14538462 6.35
461 1 0.0 16.55440868 12.94384615 6.35
462 1 0.0 17.973358 12.99846154 6.35
463 1 0.0 18.73013096 11.79692308 6.35
464 1 0.0 20.14908028 11.85153846 6.35
465 1 0.0 20.90585325 10.65 6.35
466 1 0.0 22.32480256 10.70461538 6.35
467 1 0.0 23.08157553 9.50307692 6.35
468 1 0.0 24.50052485 9.55769231 6.35
469 1 0.0 25.25729781 8.35615385 6.35
470 1 0.0 26.67624713 8.41076923 6.35
471 1 0.0 27.4330201 7.20923077 6.35
472 1 0.0 28.85196941 7.26384615 6.35
473 1 0.0 29.60874238 6.06230769 6.35
474 1 0.0 31.0276917 6.11692308 6.35
475 1 0.0 31.78446467 4.91538462 6.35
476 1 0.0 33.20341398 4.97 6.35
477 1 0.0 33.96018695 3.76846154 6.35
478 1 0.0 11.35159452 18.89692308 6.35
479 1 0.0 12.10836749 17.69538462 6.35
480 1 0.0 13.52731681 17.75 6.35
481 1 0.0 14.28408978 16.54846154 6.35
482 1 0.0 15.70303909 16.60307692 6.35
483 1 0.0 16.45981206 15.40153846 6.35
484 1 0.0 17.87876137 15.45615385 6.35
485 1 0.0 18.63553434 14.25461538 6.35
486 1 0.0 20.05448366 14.30923077 6.35
487 1 0.0 20.81125663 13.10769231 6.35
488 1 0.0 22.23020594 13.16230769 6.35
489 1 0.0 22.98697891 11.96076923 6.35
490 1 0.0 24.40592823 12.01538462 6.35
491 1 0.0 25.16270119 10.81384615 6.35
492 1 0.0 26.58165051 10.86846154 6.35
493 1 0.0 27.33842348 9.66692308 6.35
494 1 0.0 28.75737279 9.72153846 6.35
495 1 0.0 29.51414576 8.52 6.35
496 1 0.0 30.93309508 8.57461538 6.35
497 1 0.0 31.68986804 7.37307692 6.35
498 1 0.0 33.10881736 7.42769231 6.35
499 1 0.0 33.86559033 6.22615385 6.35
500 1 0.0 35.28453964 6.28076923 6.35
501 1 0.0 12.01377087 20.15307692 6.35
502 1 0.0 13.43272019 20.20769231 6.35
503 1 0.0 14.18949315 19.00615385 6.35
504 1 0.0 15.60844247 19.06076923 6.35
505 1 0.0 16.36521544 17.85923077 6.35
506 1 0.0 17.78416475 17.91384615 6.35
507 1 0.0 18.54093772 16.71230769 6.35
508 1 0.0 19.95988704 16.76692308 6.35
509 1 0.0 20.71666001 15.56538462 6.35
510 1 0.0 22.13560932 15.62 6.35
511 1 0.0 22.89238229 14.41846154 6.35
512 1 0.0 24.3113316 14.47307692 6.35
513 1 0.0 25.06810457 13.27153846 6.35
514 1 0.0 26.48705389 13.32615385 6.35
515 1 0.0 27.24382686 12.12461538 6.35
516 1 0.0 28.66277617 12.17923077 6.35
517 1 0.0 29.41954914 10.97769231 6.35
518 1 0.0 30.83849846 11.03230769 6.35
519 1 0.0 31.59527142 9.83076923 6.35
520 1 0.0 33.01422074 9.88538462 6.35
521 1 0.0 33.77099371 8.68384615 6.35
522 1 0.0 35.18994302 8.73846154 6.35
523 1 0.0 35.94671599 7.53692308 6.35
524 1 0.0 13.33812357 22.66538462 6.35
525 1 0.0 14.09489653 21.46384615 6.35
526 1 0.0 15.51384585 21.51846154 6.35
527 1 0.0 16.27061882 20.31692308 6.35
528 1 0.0 17.68956813 20.37153846 6.35
529 1 0.0 18.4463411 19.17 6.35
530 1 0.0 19.86529042 19.22461538 6.35
531 1 0.0 20.62206338 18.02307692 6.35
532 1 0.0 22.0410127 18.07769231 6.35
533 1 0.0 22.79778567 16.87615385 6.35
534 1 0.0 24.21673498 16.93076923 6.35
535 1 0.0 24.97350795 15.72923077 6.35
536 1 0.0 26.39245727 15.78384615 6.35
537 1 0.0 27.14923024 14.58230769 6.35
538 1 0.0 28.56817955 14.63692308 6.35
539 1 0.0 29.32495252 13.43538462 6.35
540 1 0.0 30.74390183 13.49 6.35
541 1 0.0 31.5006748 12.28846154 6.35
542 1 0.0 32.91962412 12.34307692 6.35
543 1 0.0 33.67639709 11.14153846 6.35
544 1 0.0 35.0953464 11.19615385 6.35
545 1 0.0 35.85211937 9.99461538 6.35
546 1 0.0 37.27106869 10.04923077 6.35
547 1 0.0 14.00029991 23.92153846 6.35
548 1 0.0 15.41924923 23.97615385 6.35
549 1 0.0 16.1760222 22.77461538 6.35
550 1 0.0 17.59497151 22.82923077 6.35
551 1 0.0 18.35174448 21.62769231 6.35
552 1 0.0 19.7706938 21.68230769 6.35
553 1 0.0 20.52746676 20.48076923 6.35
554 1 0.0 21.94641608 20.53538462 6.35
555 1 0.0 22.70318905 19.33384615 6.35
556 1 0.0 24.12213836 19.38846154 6.35
557 1 0.0 24.87891133 18.18692308 6.35
558 1 0.0 26.29786065 18.24153846 6.35
559 1 0.0 27.05463361 17.04 6.35
560 1 0.0 28.47358293 17.09461538 6.35
561 1 0.0 29.2303559 15.89307692 6.35
562 1 0.0 30.64930521 15.94769231 6.35
563 1 0.0 31.40607818 14.74615385 6.35
564 1 0.0 32.8250275 14.80076923 6.35
565 1 0.0 33.58180047 13.59923077 6.35
566 1 0.0 35.00074978 13.65384615 6.35
567 1 0.0 35.75752275 12.45230769 6.35
568 1 0.0 37.17647206 12.50692308 6.35
569 1 0.0 37.93324503 11.30538462 6.35
570 1 0.0 15.32465261 26.43384615 6.35
571 1 0.0 16.08142557 25.23230769 6.35
572 1 0.0 17.50037489 25.28692308 6.35
573 1 0.0 18.25714786 24.08538462 6.35
574 1 0.0 19.67609717 24.14 6.35
575 1 0.0 20.43287014 22.93846154 6.35
576 1 0.0 21.85181946 22.99307692 6.35
577 1 0.0 22.60859243 21.79153846 6.35
578 1 0.0 24.02754174 21.84615385 6.35
579 1 0.0 24.78431471 20.64461538 6.35
580 1 0.0 26.20326402 20.69923077 6.35
581 1 0.0 26.96003699 19.49769231 6.35
582 1 0.0 28.37898631 19.55230769 6.35
583 1 0.0 29.13575928 18.35076923 6.35
584 1 0.0 30.55470859 18.40538462 6.35
585 1 0.0 31.31148156 17.20384615 6.35
586 1 0.0 32.73043088 17.25846154 6.35
587 1 0.0 33.48720384 16.05692308 6.35
588 1 0.0 34.90615316 16.11153846 6.35
589 1 0.0 35.66292613 14.91 6.35
590 1 0.0 37.08187544 14.96461538 6.35
591 1 0.0 37.83864841 13.76307692 6.35
592 1 0.0 39.25759773 13.81769231 6.35
593 1 0.0 18.16255124 26.54307692 6.35
594 1 0.0 19.58150055 26.59769231 6.35
595 1 0.0 20.33827352 25.39615385 6.35
596 1 0.0 21.75722284 25.45076923 6.35
597 1 0.0 22.5139958 24.24923077 6.35
598 1 0.0 23.93294512 24.30384615 6.35
599 1 0.0 24.68971809 23.10230769 6.35
600 1 0.0 26.1086674 23.15692308 6.35
601 1 0.0 26.86544037 21.95538462 6.35
602 1 0.0 28.28438969 22.01 6.35
603 1 0.0 29.04116266 20.80846154 6.35
604 1 0.0 30.46011197 20.86307692 6.35
605 1 0.0 31.21688494 19.66153846 6.35
606 1 0.0 32.63583425 19.71615385 6.35
607 1 0.0 33.39260722 18.51461538 6.35
608 1 0.0 34.81155654 18.56923077 6.35
609 1 0.0 35.56832951 17.36769231 6.35
610 1 0.0 36.98727882 17.42230769 6.35
611 1 0.0 37.74405179 16.22076923 6.35
612 1 0.0 39.16300111 16.27538462 6.35
613 1 0.0 39.91977407 15.07384615 6.35
614 1 0.0 22.41939918 26.70692308 6.35
615 1 0.0 23.8383485 26.76153846 6.35
616 1 0.0 24.59512147 25.56 6.35
617 1 0.0 26.01407078 25.61461538 6.35
618 1 0.0 26.77084375 24.41307692 6.35
619 1 0.0 28.18979307 24.46769231 6.35
620 1 0.0 28.94656603 23.26615385 6.35
621 1 0.0 30.36551535 23.32076923 6.35
622 1 0.0 31.12228832 22.11923077 6.35
623 1 0.0 32.54123763 22.17384615 6.35
624 1 0.0 33.2980106 20.97230769 6.35
625 1 0.0 34.71695992 21.02692308 6.35
626 1 0.0 35.47373289 19.82538462 6.35
627 1 0.0 36.8926822 19.88 6.35
628 1 0.0 37.64945517 18.67846154 6.35
629 1 0.0 39.06840448 18.73307692 6.35
630 1 0.0 39.82517745 17.53153846 6.35
631 1 0.0 41.24412677 17.58615385 6.35
632 1 0.0 26.67624713 26.87076923 6.35
633 1 0.0 28.09519645 26.92538462 6.35
634 1 0.0 28.85196941 25.72384615 6.35
635 1 0.0 30.27091873 25.77846154 6.35
636 1 0.0 31.0276917 24.57692308 6.35
637 1 0.0 32.44664101 24.63153846 6.35
638 1 0.0 33.20341398 23.43 6.35
639 1 0.0 34.6223633 23.48461538 6.35
640 1 0.0 35.37913626 22.28307692 6.35
641 1 0.0 36.79808558 22.33769231 6.35
642 1 0.0 37.55485855 21.13615385 6.35
643 1 0.0 38.97380786 21.19076923 6.35
644 1 0.0 39.73058083 19.98923077 6.35
645 1 0.0 41.14953015 20.04384615 6.35
646 1 0.0 41.90630312 18.84230769 6.35
647 1 0.0 30.93309508 27.03461538 6.35
648 1 0.0 32.35204439 27.08923077 6.35
649 1 0.0 33.10881736 25.88769231 6.35
650 1 0.0 34.52776668 25.94230769 6.35
651 1 0.0 35.28453964 24.74076923 6.35
652 1 0.0 36.70348896 24.79538462 6.35
653 1 0.0 37.46026193 23.59384615 6.35
654 1 0.0 38.87921124 23.64846154 6.35
655 1 0.0 39.63598421 22.44692308 6.35
656 1 0.0 41.05493353 22.50153846 6.35
657 1 0.0 41.81170649 21.3 6.35
658 1 0.0 43.23065581 21.35461538 6.35
659 1 0.0 35.18994302 27.19846154 6.35
660 1 0.0 36.60889234 27.25307692 6.35
661 1 0.0 37.36566531 26.05153846 6.35
662 1 0.0 38.78461462 26.10615385 6.35
663 1 0.0 39.54138759 24.90461538 6.35
664 1 0.0 40.96033691 24.95923077 6.35
665 1 0.0 41.71710987 23.75769231 6.35
666 1 0.0 43.13605919 23.81230769 6.35
667 1 0.0 43.89283216 22.61076923 6.35
668 1 0.0 39.44679097 27.36230769 6.35
669 1 0.0 40.86574028 27.41692308 6.35
670 1 0.0 41.62251325 26.21538462 6.35
671 1 0.0 43.04146257 26.27 6.35
672 1 0.0 43.79823554 25.06846154 6.35
673 1 0.0 45.21718485 25.12307692 6.35
674 1 0.0 43.70363892 27.52615385 6.35
675 1 0.0 45.12258823 27.58076923 6.35
676 1 0.0 45.8793612 26.37923077 6.35
